<?xml version="1.0" encoding="ISO-8859-1"?>
<modeling>
 <generator>
  <i name="program" type="string">vasp </i>
  <i name="version" type="string">5.2.11  </i>
  <i name="subversion" type="string">01Dec10 complex  parallel </i>
  <i name="platform" type="string">IFC91_ompi </i>
  <i name="date" type="string">2020 07 15 </i>
  <i name="time" type="string">14:13:01 </i>
 </generator>
 <incar>
  <i type="string" name="SYSTEM"> SrTiO3</i>
  <i type="string" name="PREC">accurate</i>
  <i type="int" name="IBRION">     8</i>
  <i name="EDIFF">      0.00000001</i>
  <i name="ENCUT">    900.00000000</i>
  <i type="int" name="ISMEAR">    -5</i>
  <i type="logical" name="LWAVE"> F  </i>
  <i type="logical" name="LCHARG"> F  </i>
  <i type="logical" name="LPEAD"> F  </i>
  <i type="logical" name="LCALCPOL"> F  </i>
  <i type="logical" name="LCALCEPS"> F  </i>
  <v name="EFIELD_PEAD">      0.00000000      0.00000000      0.00000000</v>
  <i type="logical" name="LEFG"> F  </i>
  <i type="logical" name="LEPSILON"> T  </i>
  <i type="logical" name="LRHFATM"> F  </i>
  <i type="string" name="METAGGA">--</i>
  <i type="int" name="LMAXTAU">     0</i>
 </incar>
 <kpoints>
  <generation param="Gamma">
   <v type="int" name="divisions">      10       10       10 </v>
   <v name="usershift">      0.00000000       0.00000000       0.00000000 </v>
   <v name="genvec1">      0.10000000       0.00000000       0.00000000 </v>
   <v name="genvec2">      0.00000000       0.10000000       0.00000000 </v>
   <v name="genvec3">      0.00000000       0.00000000       0.10000000 </v>
   <v name="shift">      0.00000000       0.00000000       0.00000000 </v>
  </generation>
  <varray name="kpointlist" >
   <v>       0.00000000       0.00000000       0.00000000 </v>
   <v>       0.10000000       0.00000000       0.00000000 </v>
   <v>       0.20000000       0.00000000       0.00000000 </v>
   <v>       0.30000000       0.00000000       0.00000000 </v>
   <v>       0.40000000       0.00000000       0.00000000 </v>
   <v>       0.50000000       0.00000000       0.00000000 </v>
   <v>       0.10000000       0.10000000       0.00000000 </v>
   <v>       0.20000000       0.10000000       0.00000000 </v>
   <v>       0.30000000       0.10000000       0.00000000 </v>
   <v>       0.40000000       0.10000000       0.00000000 </v>
   <v>       0.50000000       0.10000000       0.00000000 </v>
   <v>       0.20000000       0.20000000       0.00000000 </v>
   <v>       0.30000000       0.20000000       0.00000000 </v>
   <v>       0.40000000       0.20000000       0.00000000 </v>
   <v>       0.50000000       0.20000000       0.00000000 </v>
   <v>       0.30000000       0.30000000       0.00000000 </v>
   <v>       0.40000000       0.30000000       0.00000000 </v>
   <v>       0.50000000       0.30000000       0.00000000 </v>
   <v>       0.40000000       0.40000000       0.00000000 </v>
   <v>       0.50000000       0.40000000       0.00000000 </v>
   <v>       0.50000000       0.50000000       0.00000000 </v>
   <v>       0.00000000       0.00000000       0.10000000 </v>
   <v>       0.10000000       0.00000000       0.10000000 </v>
   <v>       0.20000000       0.00000000       0.10000000 </v>
   <v>       0.30000000       0.00000000       0.10000000 </v>
   <v>       0.40000000       0.00000000       0.10000000 </v>
   <v>       0.50000000       0.00000000       0.10000000 </v>
   <v>       0.10000000       0.10000000       0.10000000 </v>
   <v>       0.20000000       0.10000000       0.10000000 </v>
   <v>       0.30000000       0.10000000       0.10000000 </v>
   <v>       0.40000000       0.10000000       0.10000000 </v>
   <v>       0.50000000       0.10000000       0.10000000 </v>
   <v>       0.20000000       0.20000000       0.10000000 </v>
   <v>       0.30000000       0.20000000       0.10000000 </v>
   <v>       0.40000000       0.20000000       0.10000000 </v>
   <v>       0.50000000       0.20000000       0.10000000 </v>
   <v>       0.30000000       0.30000000       0.10000000 </v>
   <v>       0.40000000       0.30000000       0.10000000 </v>
   <v>       0.50000000       0.30000000       0.10000000 </v>
   <v>       0.40000000       0.40000000       0.10000000 </v>
   <v>       0.50000000       0.40000000       0.10000000 </v>
   <v>       0.50000000       0.50000000       0.10000000 </v>
   <v>       0.00000000       0.00000000       0.20000000 </v>
   <v>       0.10000000       0.00000000       0.20000000 </v>
   <v>       0.20000000       0.00000000       0.20000000 </v>
   <v>       0.30000000       0.00000000       0.20000000 </v>
   <v>       0.40000000       0.00000000       0.20000000 </v>
   <v>       0.50000000       0.00000000       0.20000000 </v>
   <v>       0.10000000       0.10000000       0.20000000 </v>
   <v>       0.20000000       0.10000000       0.20000000 </v>
   <v>       0.30000000       0.10000000       0.20000000 </v>
   <v>       0.40000000       0.10000000       0.20000000 </v>
   <v>       0.50000000       0.10000000       0.20000000 </v>
   <v>       0.20000000       0.20000000       0.20000000 </v>
   <v>       0.30000000       0.20000000       0.20000000 </v>
   <v>       0.40000000       0.20000000       0.20000000 </v>
   <v>       0.50000000       0.20000000       0.20000000 </v>
   <v>       0.30000000       0.30000000       0.20000000 </v>
   <v>       0.40000000       0.30000000       0.20000000 </v>
   <v>       0.50000000       0.30000000       0.20000000 </v>
   <v>       0.40000000       0.40000000       0.20000000 </v>
   <v>       0.50000000       0.40000000       0.20000000 </v>
   <v>       0.50000000       0.50000000       0.20000000 </v>
   <v>       0.00000000       0.00000000       0.30000000 </v>
   <v>       0.10000000       0.00000000       0.30000000 </v>
   <v>       0.20000000       0.00000000       0.30000000 </v>
   <v>       0.30000000       0.00000000       0.30000000 </v>
   <v>       0.40000000       0.00000000       0.30000000 </v>
   <v>       0.50000000       0.00000000       0.30000000 </v>
   <v>       0.10000000       0.10000000       0.30000000 </v>
   <v>       0.20000000       0.10000000       0.30000000 </v>
   <v>       0.30000000       0.10000000       0.30000000 </v>
   <v>       0.40000000       0.10000000       0.30000000 </v>
   <v>       0.50000000       0.10000000       0.30000000 </v>
   <v>       0.20000000       0.20000000       0.30000000 </v>
   <v>       0.30000000       0.20000000       0.30000000 </v>
   <v>       0.40000000       0.20000000       0.30000000 </v>
   <v>       0.50000000       0.20000000       0.30000000 </v>
   <v>       0.30000000       0.30000000       0.30000000 </v>
   <v>       0.40000000       0.30000000       0.30000000 </v>
   <v>       0.50000000       0.30000000       0.30000000 </v>
   <v>       0.40000000       0.40000000       0.30000000 </v>
   <v>       0.50000000       0.40000000       0.30000000 </v>
   <v>       0.50000000       0.50000000       0.30000000 </v>
   <v>       0.00000000       0.00000000       0.40000000 </v>
   <v>       0.10000000       0.00000000       0.40000000 </v>
   <v>       0.20000000       0.00000000       0.40000000 </v>
   <v>       0.30000000       0.00000000       0.40000000 </v>
   <v>       0.40000000       0.00000000       0.40000000 </v>
   <v>       0.50000000       0.00000000       0.40000000 </v>
   <v>       0.10000000       0.10000000       0.40000000 </v>
   <v>       0.20000000       0.10000000       0.40000000 </v>
   <v>       0.30000000       0.10000000       0.40000000 </v>
   <v>       0.40000000       0.10000000       0.40000000 </v>
   <v>       0.50000000       0.10000000       0.40000000 </v>
   <v>       0.20000000       0.20000000       0.40000000 </v>
   <v>       0.30000000       0.20000000       0.40000000 </v>
   <v>       0.40000000       0.20000000       0.40000000 </v>
   <v>       0.50000000       0.20000000       0.40000000 </v>
   <v>       0.30000000       0.30000000       0.40000000 </v>
   <v>       0.40000000       0.30000000       0.40000000 </v>
   <v>       0.50000000       0.30000000       0.40000000 </v>
   <v>       0.40000000       0.40000000       0.40000000 </v>
   <v>       0.50000000       0.40000000       0.40000000 </v>
   <v>       0.50000000       0.50000000       0.40000000 </v>
   <v>       0.00000000       0.00000000       0.50000000 </v>
   <v>       0.10000000       0.00000000       0.50000000 </v>
   <v>       0.20000000       0.00000000       0.50000000 </v>
   <v>       0.30000000       0.00000000       0.50000000 </v>
   <v>       0.40000000       0.00000000       0.50000000 </v>
   <v>       0.50000000       0.00000000       0.50000000 </v>
   <v>       0.10000000       0.10000000       0.50000000 </v>
   <v>       0.20000000       0.10000000       0.50000000 </v>
   <v>       0.30000000       0.10000000       0.50000000 </v>
   <v>       0.40000000       0.10000000       0.50000000 </v>
   <v>       0.50000000       0.10000000       0.50000000 </v>
   <v>       0.20000000       0.20000000       0.50000000 </v>
   <v>       0.30000000       0.20000000       0.50000000 </v>
   <v>       0.40000000       0.20000000       0.50000000 </v>
   <v>       0.50000000       0.20000000       0.50000000 </v>
   <v>       0.30000000       0.30000000       0.50000000 </v>
   <v>       0.40000000       0.30000000       0.50000000 </v>
   <v>       0.50000000       0.30000000       0.50000000 </v>
   <v>       0.40000000       0.40000000       0.50000000 </v>
   <v>       0.50000000       0.40000000       0.50000000 </v>
   <v>       0.50000000       0.50000000       0.50000000 </v>
  </varray>
  <varray name="weights" >
   <v>       0.00100000 </v>
   <v>       0.00400000 </v>
   <v>       0.00400000 </v>
   <v>       0.00400000 </v>
   <v>       0.00400000 </v>
   <v>       0.00200000 </v>
   <v>       0.00400000 </v>
   <v>       0.00800000 </v>
   <v>       0.00800000 </v>
   <v>       0.00800000 </v>
   <v>       0.00400000 </v>
   <v>       0.00400000 </v>
   <v>       0.00800000 </v>
   <v>       0.00800000 </v>
   <v>       0.00400000 </v>
   <v>       0.00400000 </v>
   <v>       0.00800000 </v>
   <v>       0.00400000 </v>
   <v>       0.00400000 </v>
   <v>       0.00400000 </v>
   <v>       0.00100000 </v>
   <v>       0.00200000 </v>
   <v>       0.00800000 </v>
   <v>       0.00800000 </v>
   <v>       0.00800000 </v>
   <v>       0.00800000 </v>
   <v>       0.00400000 </v>
   <v>       0.00800000 </v>
   <v>       0.01600000 </v>
   <v>       0.01600000 </v>
   <v>       0.01600000 </v>
   <v>       0.00800000 </v>
   <v>       0.00800000 </v>
   <v>       0.01600000 </v>
   <v>       0.01600000 </v>
   <v>       0.00800000 </v>
   <v>       0.00800000 </v>
   <v>       0.01600000 </v>
   <v>       0.00800000 </v>
   <v>       0.00800000 </v>
   <v>       0.00800000 </v>
   <v>       0.00200000 </v>
   <v>       0.00200000 </v>
   <v>       0.00800000 </v>
   <v>       0.00800000 </v>
   <v>       0.00800000 </v>
   <v>       0.00800000 </v>
   <v>       0.00400000 </v>
   <v>       0.00800000 </v>
   <v>       0.01600000 </v>
   <v>       0.01600000 </v>
   <v>       0.01600000 </v>
   <v>       0.00800000 </v>
   <v>       0.00800000 </v>
   <v>       0.01600000 </v>
   <v>       0.01600000 </v>
   <v>       0.00800000 </v>
   <v>       0.00800000 </v>
   <v>       0.01600000 </v>
   <v>       0.00800000 </v>
   <v>       0.00800000 </v>
   <v>       0.00800000 </v>
   <v>       0.00200000 </v>
   <v>       0.00200000 </v>
   <v>       0.00800000 </v>
   <v>       0.00800000 </v>
   <v>       0.00800000 </v>
   <v>       0.00800000 </v>
   <v>       0.00400000 </v>
   <v>       0.00800000 </v>
   <v>       0.01600000 </v>
   <v>       0.01600000 </v>
   <v>       0.01600000 </v>
   <v>       0.00800000 </v>
   <v>       0.00800000 </v>
   <v>       0.01600000 </v>
   <v>       0.01600000 </v>
   <v>       0.00800000 </v>
   <v>       0.00800000 </v>
   <v>       0.01600000 </v>
   <v>       0.00800000 </v>
   <v>       0.00800000 </v>
   <v>       0.00800000 </v>
   <v>       0.00200000 </v>
   <v>       0.00200000 </v>
   <v>       0.00800000 </v>
   <v>       0.00800000 </v>
   <v>       0.00800000 </v>
   <v>       0.00800000 </v>
   <v>       0.00400000 </v>
   <v>       0.00800000 </v>
   <v>       0.01600000 </v>
   <v>       0.01600000 </v>
   <v>       0.01600000 </v>
   <v>       0.00800000 </v>
   <v>       0.00800000 </v>
   <v>       0.01600000 </v>
   <v>       0.01600000 </v>
   <v>       0.00800000 </v>
   <v>       0.00800000 </v>
   <v>       0.01600000 </v>
   <v>       0.00800000 </v>
   <v>       0.00800000 </v>
   <v>       0.00800000 </v>
   <v>       0.00200000 </v>
   <v>       0.00100000 </v>
   <v>       0.00400000 </v>
   <v>       0.00400000 </v>
   <v>       0.00400000 </v>
   <v>       0.00400000 </v>
   <v>       0.00200000 </v>
   <v>       0.00400000 </v>
   <v>       0.00800000 </v>
   <v>       0.00800000 </v>
   <v>       0.00800000 </v>
   <v>       0.00400000 </v>
   <v>       0.00400000 </v>
   <v>       0.00800000 </v>
   <v>       0.00800000 </v>
   <v>       0.00400000 </v>
   <v>       0.00400000 </v>
   <v>       0.00800000 </v>
   <v>       0.00400000 </v>
   <v>       0.00400000 </v>
   <v>       0.00400000 </v>
   <v>       0.00100000 </v>
  </varray>
  <varray name="tetrahedronlist"  type="int" >
   <v type="int" >        4        1        2        7       22 </v>
   <v type="int" >        4        2        7       22       23 </v>
   <v type="int" >        4        7       22       23       28 </v>
   <v type="int" >        4        2        3        8       23 </v>
   <v type="int" >        4        2        7        8       23 </v>
   <v type="int" >        4        7        8       23       28 </v>
   <v type="int" >        4        3        8       23       24 </v>
   <v type="int" >        4        8       23       24       29 </v>
   <v type="int" >        4        8       23       28       29 </v>
   <v type="int" >        4        3        4        9       24 </v>
   <v type="int" >        4        3        8        9       24 </v>
   <v type="int" >        4        8        9       24       29 </v>
   <v type="int" >        4        4        9       24       25 </v>
   <v type="int" >        4        9       24       25       30 </v>
   <v type="int" >        4        9       24       29       30 </v>
   <v type="int" >        4        4        5       10       25 </v>
   <v type="int" >        4        4        9       10       25 </v>
   <v type="int" >        4        9       10       25       30 </v>
   <v type="int" >        4        5       10       25       26 </v>
   <v type="int" >        4       10       25       26       31 </v>
   <v type="int" >        4       10       25       30       31 </v>
   <v type="int" >        4        5        6       11       26 </v>
   <v type="int" >        4        5       10       11       26 </v>
   <v type="int" >        4       10       11       26       31 </v>
   <v type="int" >        4        6       11       26       27 </v>
   <v type="int" >        4       11       26       27       32 </v>
   <v type="int" >        4       11       26       31       32 </v>
   <v type="int" >        4        5        6       10       27 </v>
   <v type="int" >        4        6       10       11       27 </v>
   <v type="int" >        4       10       11       27       32 </v>
   <v type="int" >        4        5       10       26       27 </v>
   <v type="int" >        4       10       26       27       31 </v>
   <v type="int" >        4       10       27       31       32 </v>
   <v type="int" >        4        4        5        9       26 </v>
   <v type="int" >        4        5        9       10       26 </v>
   <v type="int" >        4        9       10       26       31 </v>
   <v type="int" >        4        4        9       25       26 </v>
   <v type="int" >        4        9       25       26       30 </v>
   <v type="int" >        4        9       26       30       31 </v>
   <v type="int" >        4        3        4        8       25 </v>
   <v type="int" >        4        4        8        9       25 </v>
   <v type="int" >        4        8        9       25       30 </v>
   <v type="int" >        4        3        8       24       25 </v>
   <v type="int" >        4        8       24       25       29 </v>
   <v type="int" >        4        8       25       29       30 </v>
   <v type="int" >        4        2        3        7       24 </v>
   <v type="int" >        4        3        7        8       24 </v>
   <v type="int" >        4        7        8       24       29 </v>
   <v type="int" >        4        2        7       23       24 </v>
   <v type="int" >        4        7       23       24       28 </v>
   <v type="int" >        4        7       24       28       29 </v>
   <v type="int" >        4        1        2        2       23 </v>
   <v type="int" >        4        2        2        7       23 </v>
   <v type="int" >        4        2        7       23       28 </v>
   <v type="int" >        4        1        2       22       23 </v>
   <v type="int" >        4        2       22       23       23 </v>
   <v type="int" >        4        2       23       23       28 </v>
   <v type="int" >        4        7        8       12       28 </v>
   <v type="int" >        4        8       12       28       29 </v>
   <v type="int" >        4       12       28       29       33 </v>
   <v type="int" >        4        8        9       13       29 </v>
   <v type="int" >        4        8       12       13       29 </v>
   <v type="int" >        4       12       13       29       33 </v>
   <v type="int" >        4        9       13       29       30 </v>
   <v type="int" >        4       13       29       30       34 </v>
   <v type="int" >        4       13       29       33       34 </v>
   <v type="int" >        4        9       10       14       30 </v>
   <v type="int" >        4        9       13       14       30 </v>
   <v type="int" >        4       13       14       30       34 </v>
   <v type="int" >        4       10       14       30       31 </v>
   <v type="int" >        4       14       30       31       35 </v>
   <v type="int" >        4       14       30       34       35 </v>
   <v type="int" >        4       10       11       15       31 </v>
   <v type="int" >        4       10       14       15       31 </v>
   <v type="int" >        4       14       15       31       35 </v>
   <v type="int" >        4       11       15       31       32 </v>
   <v type="int" >        4       15       31       32       36 </v>
   <v type="int" >        4       15       31       35       36 </v>
   <v type="int" >        4       10       11       14       32 </v>
   <v type="int" >        4       11       14       15       32 </v>
   <v type="int" >        4       14       15       32       36 </v>
   <v type="int" >        4       10       14       31       32 </v>
   <v type="int" >        4       14       31       32       35 </v>
   <v type="int" >        4       14       32       35       36 </v>
   <v type="int" >        4        9       10       13       31 </v>
   <v type="int" >        4       10       13       14       31 </v>
   <v type="int" >        4       13       14       31       35 </v>
   <v type="int" >        4        9       13       30       31 </v>
   <v type="int" >        4       13       30       31       34 </v>
   <v type="int" >        4       13       31       34       35 </v>
   <v type="int" >        4        8        9       12       30 </v>
   <v type="int" >        4        9       12       13       30 </v>
   <v type="int" >        4       12       13       30       34 </v>
   <v type="int" >        4        8       12       29       30 </v>
   <v type="int" >        4       12       29       30       33 </v>
   <v type="int" >        4       12       30       33       34 </v>
   <v type="int" >        4        7        8        8       29 </v>
   <v type="int" >        4        8        8       12       29 </v>
   <v type="int" >        4        8       12       29       33 </v>
   <v type="int" >        4        7        8       28       29 </v>
   <v type="int" >        4        8       28       29       29 </v>
   <v type="int" >        4        8       29       29       33 </v>
   <v type="int" >        4        2        3        7       28 </v>
   <v type="int" >        4        3        7        8       28 </v>
   <v type="int" >        4        3        8       28       29 </v>
   <v type="int" >        4        2        3       23       28 </v>
   <v type="int" >        4        3       23       24       28 </v>
   <v type="int" >        4        3       24       28       29 </v>
   <v type="int" >        4       12       13       16       33 </v>
   <v type="int" >        4       13       16       33       34 </v>
   <v type="int" >        4       16       33       34       37 </v>
   <v type="int" >        4       13       14       17       34 </v>
   <v type="int" >        4       13       16       17       34 </v>
   <v type="int" >        4       16       17       34       37 </v>
   <v type="int" >        4       14       17       34       35 </v>
   <v type="int" >        4       17       34       35       38 </v>
   <v type="int" >        4       17       34       37       38 </v>
   <v type="int" >        4       14       15       18       35 </v>
   <v type="int" >        4       14       17       18       35 </v>
   <v type="int" >        4       17       18       35       38 </v>
   <v type="int" >        4       15       18       35       36 </v>
   <v type="int" >        4       18       35       36       39 </v>
   <v type="int" >        4       18       35       38       39 </v>
   <v type="int" >        4       14       15       17       36 </v>
   <v type="int" >        4       15       17       18       36 </v>
   <v type="int" >        4       17       18       36       39 </v>
   <v type="int" >        4       14       17       35       36 </v>
   <v type="int" >        4       17       35       36       38 </v>
   <v type="int" >        4       17       36       38       39 </v>
   <v type="int" >        4       13       14       16       35 </v>
   <v type="int" >        4       14       16       17       35 </v>
   <v type="int" >        4       16       17       35       38 </v>
   <v type="int" >        4       13       16       34       35 </v>
   <v type="int" >        4       16       34       35       37 </v>
   <v type="int" >        4       16       35       37       38 </v>
   <v type="int" >        4       12       13       13       34 </v>
   <v type="int" >        4       13       13       16       34 </v>
   <v type="int" >        4       13       16       34       37 </v>
   <v type="int" >        4       12       13       33       34 </v>
   <v type="int" >        4       13       33       34       34 </v>
   <v type="int" >        4       13       34       34       37 </v>
   <v type="int" >        4        8        9       12       33 </v>
   <v type="int" >        4        9       12       13       33 </v>
   <v type="int" >        4        9       13       33       34 </v>
   <v type="int" >        4        8        9       29       33 </v>
   <v type="int" >        4        9       29       30       33 </v>
   <v type="int" >        4        9       30       33       34 </v>
   <v type="int" >        4        3        4        8       29 </v>
   <v type="int" >        4        4        8        9       29 </v>
   <v type="int" >        4        4        9       29       30 </v>
   <v type="int" >        4        3        4       24       29 </v>
   <v type="int" >        4        4       24       25       29 </v>
   <v type="int" >        4        4       25       29       30 </v>
   <v type="int" >        4       16       17       19       37 </v>
   <v type="int" >        4       17       19       37       38 </v>
   <v type="int" >        4       19       37       38       40 </v>
   <v type="int" >        4       17       18       20       38 </v>
   <v type="int" >        4       17       19       20       38 </v>
   <v type="int" >        4       19       20       38       40 </v>
   <v type="int" >        4       18       20       38       39 </v>
   <v type="int" >        4       20       38       39       41 </v>
   <v type="int" >        4       20       38       40       41 </v>
   <v type="int" >        4       17       18       19       39 </v>
   <v type="int" >        4       18       19       20       39 </v>
   <v type="int" >        4       19       20       39       41 </v>
   <v type="int" >        4       17       19       38       39 </v>
   <v type="int" >        4       19       38       39       40 </v>
   <v type="int" >        4       19       39       40       41 </v>
   <v type="int" >        4       16       17       17       38 </v>
   <v type="int" >        4       17       17       19       38 </v>
   <v type="int" >        4       17       19       38       40 </v>
   <v type="int" >        4       16       17       37       38 </v>
   <v type="int" >        4       17       37       38       38 </v>
   <v type="int" >        4       17       38       38       40 </v>
   <v type="int" >        4       13       14       16       37 </v>
   <v type="int" >        4       14       16       17       37 </v>
   <v type="int" >        4       14       17       37       38 </v>
   <v type="int" >        4       13       14       34       37 </v>
   <v type="int" >        4       14       34       35       37 </v>
   <v type="int" >        4       14       35       37       38 </v>
   <v type="int" >        4        9       10       13       34 </v>
   <v type="int" >        4       10       13       14       34 </v>
   <v type="int" >        4       10       14       34       35 </v>
   <v type="int" >        4        9       10       30       34 </v>
   <v type="int" >        4       10       30       31       34 </v>
   <v type="int" >        4       10       31       34       35 </v>
   <v type="int" >        4        4        5        9       30 </v>
   <v type="int" >        4        5        9       10       30 </v>
   <v type="int" >        4        5       10       30       31 </v>
   <v type="int" >        4        4        5       25       30 </v>
   <v type="int" >        4        5       25       26       30 </v>
   <v type="int" >        4        5       26       30       31 </v>
   <v type="int" >        4       19       20       21       40 </v>
   <v type="int" >        4       20       21       40       41 </v>
   <v type="int" >        4       21       40       41       42 </v>
   <v type="int" >        4       19       20       20       41 </v>
   <v type="int" >        4       20       20       21       41 </v>
   <v type="int" >        4       20       21       41       42 </v>
   <v type="int" >        4       19       20       40       41 </v>
   <v type="int" >        4       20       40       41       41 </v>
   <v type="int" >        4       20       41       41       42 </v>
   <v type="int" >        4       17       18       19       40 </v>
   <v type="int" >        4       18       19       20       40 </v>
   <v type="int" >        4       18       20       40       41 </v>
   <v type="int" >        4       17       18       38       40 </v>
   <v type="int" >        4       18       38       39       40 </v>
   <v type="int" >        4       18       39       40       41 </v>
   <v type="int" >        4       14       15       17       38 </v>
   <v type="int" >        4       15       17       18       38 </v>
   <v type="int" >        4       15       18       38       39 </v>
   <v type="int" >        4       14       15       35       38 </v>
   <v type="int" >        4       15       35       36       38 </v>
   <v type="int" >        4       15       36       38       39 </v>
   <v type="int" >        4       10       11       14       35 </v>
   <v type="int" >        4       11       14       15       35 </v>
   <v type="int" >        4       11       15       35       36 </v>
   <v type="int" >        4       10       11       31       35 </v>
   <v type="int" >        4       11       31       32       35 </v>
   <v type="int" >        4       11       32       35       36 </v>
   <v type="int" >        4        5        6       10       31 </v>
   <v type="int" >        4        6       10       11       31 </v>
   <v type="int" >        4        6       11       31       32 </v>
   <v type="int" >        4        5        6       26       31 </v>
   <v type="int" >        4        6       26       27       31 </v>
   <v type="int" >        4        6       27       31       32 </v>
   <v type="int" >        4       19       20       21       42 </v>
   <v type="int" >        4       19       20       41       42 </v>
   <v type="int" >        4       19       40       41       42 </v>
   <v type="int" >        4       17       18       20       41 </v>
   <v type="int" >        4       17       19       20       41 </v>
   <v type="int" >        4       17       19       40       41 </v>
   <v type="int" >        4       17       18       39       41 </v>
   <v type="int" >        4       17       38       39       41 </v>
   <v type="int" >        4       17       38       40       41 </v>
   <v type="int" >        4       14       15       18       39 </v>
   <v type="int" >        4       14       17       18       39 </v>
   <v type="int" >        4       14       17       38       39 </v>
   <v type="int" >        4       14       15       36       39 </v>
   <v type="int" >        4       14       35       36       39 </v>
   <v type="int" >        4       14       35       38       39 </v>
   <v type="int" >        4       10       11       15       36 </v>
   <v type="int" >        4       10       14       15       36 </v>
   <v type="int" >        4       10       14       35       36 </v>
   <v type="int" >        4       10       11       32       36 </v>
   <v type="int" >        4       10       31       32       36 </v>
   <v type="int" >        4       10       31       35       36 </v>
   <v type="int" >        4        5        6       11       32 </v>
   <v type="int" >        4        5       10       11       32 </v>
   <v type="int" >        4        5       10       31       32 </v>
   <v type="int" >        4        5        6       27       32 </v>
   <v type="int" >        4        5       26       27       32 </v>
   <v type="int" >        4        5       26       31       32 </v>
   <v type="int" >        4       16       17       19       40 </v>
   <v type="int" >        4       16       17       38       40 </v>
   <v type="int" >        4       16       37       38       40 </v>
   <v type="int" >        4       13       14       17       38 </v>
   <v type="int" >        4       13       16       17       38 </v>
   <v type="int" >        4       13       16       37       38 </v>
   <v type="int" >        4       13       14       35       38 </v>
   <v type="int" >        4       13       34       35       38 </v>
   <v type="int" >        4       13       34       37       38 </v>
   <v type="int" >        4        9       10       14       35 </v>
   <v type="int" >        4        9       13       14       35 </v>
   <v type="int" >        4        9       13       34       35 </v>
   <v type="int" >        4        9       10       31       35 </v>
   <v type="int" >        4        9       30       31       35 </v>
   <v type="int" >        4        9       30       34       35 </v>
   <v type="int" >        4        4        5       10       31 </v>
   <v type="int" >        4        4        9       10       31 </v>
   <v type="int" >        4        4        9       30       31 </v>
   <v type="int" >        4        4        5       26       31 </v>
   <v type="int" >        4        4       25       26       31 </v>
   <v type="int" >        4        4       25       30       31 </v>
   <v type="int" >        4       12       13       16       37 </v>
   <v type="int" >        4       12       13       34       37 </v>
   <v type="int" >        4       12       33       34       37 </v>
   <v type="int" >        4        8        9       13       34 </v>
   <v type="int" >        4        8       12       13       34 </v>
   <v type="int" >        4        8       12       33       34 </v>
   <v type="int" >        4        8        9       30       34 </v>
   <v type="int" >        4        8       29       30       34 </v>
   <v type="int" >        4        8       29       33       34 </v>
   <v type="int" >        4        3        4        9       30 </v>
   <v type="int" >        4        3        8        9       30 </v>
   <v type="int" >        4        3        8       29       30 </v>
   <v type="int" >        4        3        4       25       30 </v>
   <v type="int" >        4        3       24       25       30 </v>
   <v type="int" >        4        3       24       29       30 </v>
   <v type="int" >        4        7        8       12       33 </v>
   <v type="int" >        4        7        8       29       33 </v>
   <v type="int" >        4        7       28       29       33 </v>
   <v type="int" >        4        2        3        8       29 </v>
   <v type="int" >        4        2        7        8       29 </v>
   <v type="int" >        4        2        7       28       29 </v>
   <v type="int" >        4        2        3       24       29 </v>
   <v type="int" >        4        2       23       24       29 </v>
   <v type="int" >        4        2       23       28       29 </v>
   <v type="int" >        4        1        2        7       28 </v>
   <v type="int" >        4        1        2       23       28 </v>
   <v type="int" >        4        1       22       23       28 </v>
   <v type="int" >        4       22       23       28       43 </v>
   <v type="int" >        4       23       28       43       44 </v>
   <v type="int" >        4       28       43       44       49 </v>
   <v type="int" >        4       23       24       29       44 </v>
   <v type="int" >        4       23       28       29       44 </v>
   <v type="int" >        4       28       29       44       49 </v>
   <v type="int" >        4       24       29       44       45 </v>
   <v type="int" >        4       29       44       45       50 </v>
   <v type="int" >        4       29       44       49       50 </v>
   <v type="int" >        4       24       25       30       45 </v>
   <v type="int" >        4       24       29       30       45 </v>
   <v type="int" >        4       29       30       45       50 </v>
   <v type="int" >        4       25       30       45       46 </v>
   <v type="int" >        4       30       45       46       51 </v>
   <v type="int" >        4       30       45       50       51 </v>
   <v type="int" >        4       25       26       31       46 </v>
   <v type="int" >        4       25       30       31       46 </v>
   <v type="int" >        4       30       31       46       51 </v>
   <v type="int" >        4       26       31       46       47 </v>
   <v type="int" >        4       31       46       47       52 </v>
   <v type="int" >        4       31       46       51       52 </v>
   <v type="int" >        4       26       27       32       47 </v>
   <v type="int" >        4       26       31       32       47 </v>
   <v type="int" >        4       31       32       47       52 </v>
   <v type="int" >        4       27       32       47       48 </v>
   <v type="int" >        4       32       47       48       53 </v>
   <v type="int" >        4       32       47       52       53 </v>
   <v type="int" >        4       26       27       31       48 </v>
   <v type="int" >        4       27       31       32       48 </v>
   <v type="int" >        4       31       32       48       53 </v>
   <v type="int" >        4       26       31       47       48 </v>
   <v type="int" >        4       31       47       48       52 </v>
   <v type="int" >        4       31       48       52       53 </v>
   <v type="int" >        4       25       26       30       47 </v>
   <v type="int" >        4       26       30       31       47 </v>
   <v type="int" >        4       30       31       47       52 </v>
   <v type="int" >        4       25       30       46       47 </v>
   <v type="int" >        4       30       46       47       51 </v>
   <v type="int" >        4       30       47       51       52 </v>
   <v type="int" >        4       24       25       29       46 </v>
   <v type="int" >        4       25       29       30       46 </v>
   <v type="int" >        4       29       30       46       51 </v>
   <v type="int" >        4       24       29       45       46 </v>
   <v type="int" >        4       29       45       46       50 </v>
   <v type="int" >        4       29       46       50       51 </v>
   <v type="int" >        4       23       24       28       45 </v>
   <v type="int" >        4       24       28       29       45 </v>
   <v type="int" >        4       28       29       45       50 </v>
   <v type="int" >        4       23       28       44       45 </v>
   <v type="int" >        4       28       44       45       49 </v>
   <v type="int" >        4       28       45       49       50 </v>
   <v type="int" >        4       22       23       23       44 </v>
   <v type="int" >        4       23       23       28       44 </v>
   <v type="int" >        4       23       28       44       49 </v>
   <v type="int" >        4       22       23       43       44 </v>
   <v type="int" >        4       23       43       44       44 </v>
   <v type="int" >        4       23       44       44       49 </v>
   <v type="int" >        4       28       29       33       49 </v>
   <v type="int" >        4       29       33       49       50 </v>
   <v type="int" >        4       33       49       50       54 </v>
   <v type="int" >        4       29       30       34       50 </v>
   <v type="int" >        4       29       33       34       50 </v>
   <v type="int" >        4       33       34       50       54 </v>
   <v type="int" >        4       30       34       50       51 </v>
   <v type="int" >        4       34       50       51       55 </v>
   <v type="int" >        4       34       50       54       55 </v>
   <v type="int" >        4       30       31       35       51 </v>
   <v type="int" >        4       30       34       35       51 </v>
   <v type="int" >        4       34       35       51       55 </v>
   <v type="int" >        4       31       35       51       52 </v>
   <v type="int" >        4       35       51       52       56 </v>
   <v type="int" >        4       35       51       55       56 </v>
   <v type="int" >        4       31       32       36       52 </v>
   <v type="int" >        4       31       35       36       52 </v>
   <v type="int" >        4       35       36       52       56 </v>
   <v type="int" >        4       32       36       52       53 </v>
   <v type="int" >        4       36       52       53       57 </v>
   <v type="int" >        4       36       52       56       57 </v>
   <v type="int" >        4       31       32       35       53 </v>
   <v type="int" >        4       32       35       36       53 </v>
   <v type="int" >        4       35       36       53       57 </v>
   <v type="int" >        4       31       35       52       53 </v>
   <v type="int" >        4       35       52       53       56 </v>
   <v type="int" >        4       35       53       56       57 </v>
   <v type="int" >        4       30       31       34       52 </v>
   <v type="int" >        4       31       34       35       52 </v>
   <v type="int" >        4       34       35       52       56 </v>
   <v type="int" >        4       30       34       51       52 </v>
   <v type="int" >        4       34       51       52       55 </v>
   <v type="int" >        4       34       52       55       56 </v>
   <v type="int" >        4       29       30       33       51 </v>
   <v type="int" >        4       30       33       34       51 </v>
   <v type="int" >        4       33       34       51       55 </v>
   <v type="int" >        4       29       33       50       51 </v>
   <v type="int" >        4       33       50       51       54 </v>
   <v type="int" >        4       33       51       54       55 </v>
   <v type="int" >        4       28       29       29       50 </v>
   <v type="int" >        4       29       29       33       50 </v>
   <v type="int" >        4       29       33       50       54 </v>
   <v type="int" >        4       28       29       49       50 </v>
   <v type="int" >        4       29       49       50       50 </v>
   <v type="int" >        4       29       50       50       54 </v>
   <v type="int" >        4       23       24       28       49 </v>
   <v type="int" >        4       24       28       29       49 </v>
   <v type="int" >        4       24       29       49       50 </v>
   <v type="int" >        4       23       24       44       49 </v>
   <v type="int" >        4       24       44       45       49 </v>
   <v type="int" >        4       24       45       49       50 </v>
   <v type="int" >        4       33       34       37       54 </v>
   <v type="int" >        4       34       37       54       55 </v>
   <v type="int" >        4       37       54       55       58 </v>
   <v type="int" >        4       34       35       38       55 </v>
   <v type="int" >        4       34       37       38       55 </v>
   <v type="int" >        4       37       38       55       58 </v>
   <v type="int" >        4       35       38       55       56 </v>
   <v type="int" >        4       38       55       56       59 </v>
   <v type="int" >        4       38       55       58       59 </v>
   <v type="int" >        4       35       36       39       56 </v>
   <v type="int" >        4       35       38       39       56 </v>
   <v type="int" >        4       38       39       56       59 </v>
   <v type="int" >        4       36       39       56       57 </v>
   <v type="int" >        4       39       56       57       60 </v>
   <v type="int" >        4       39       56       59       60 </v>
   <v type="int" >        4       35       36       38       57 </v>
   <v type="int" >        4       36       38       39       57 </v>
   <v type="int" >        4       38       39       57       60 </v>
   <v type="int" >        4       35       38       56       57 </v>
   <v type="int" >        4       38       56       57       59 </v>
   <v type="int" >        4       38       57       59       60 </v>
   <v type="int" >        4       34       35       37       56 </v>
   <v type="int" >        4       35       37       38       56 </v>
   <v type="int" >        4       37       38       56       59 </v>
   <v type="int" >        4       34       37       55       56 </v>
   <v type="int" >        4       37       55       56       58 </v>
   <v type="int" >        4       37       56       58       59 </v>
   <v type="int" >        4       33       34       34       55 </v>
   <v type="int" >        4       34       34       37       55 </v>
   <v type="int" >        4       34       37       55       58 </v>
   <v type="int" >        4       33       34       54       55 </v>
   <v type="int" >        4       34       54       55       55 </v>
   <v type="int" >        4       34       55       55       58 </v>
   <v type="int" >        4       29       30       33       54 </v>
   <v type="int" >        4       30       33       34       54 </v>
   <v type="int" >        4       30       34       54       55 </v>
   <v type="int" >        4       29       30       50       54 </v>
   <v type="int" >        4       30       50       51       54 </v>
   <v type="int" >        4       30       51       54       55 </v>
   <v type="int" >        4       24       25       29       50 </v>
   <v type="int" >        4       25       29       30       50 </v>
   <v type="int" >        4       25       30       50       51 </v>
   <v type="int" >        4       24       25       45       50 </v>
   <v type="int" >        4       25       45       46       50 </v>
   <v type="int" >        4       25       46       50       51 </v>
   <v type="int" >        4       37       38       40       58 </v>
   <v type="int" >        4       38       40       58       59 </v>
   <v type="int" >        4       40       58       59       61 </v>
   <v type="int" >        4       38       39       41       59 </v>
   <v type="int" >        4       38       40       41       59 </v>
   <v type="int" >        4       40       41       59       61 </v>
   <v type="int" >        4       39       41       59       60 </v>
   <v type="int" >        4       41       59       60       62 </v>
   <v type="int" >        4       41       59       61       62 </v>
   <v type="int" >        4       38       39       40       60 </v>
   <v type="int" >        4       39       40       41       60 </v>
   <v type="int" >        4       40       41       60       62 </v>
   <v type="int" >        4       38       40       59       60 </v>
   <v type="int" >        4       40       59       60       61 </v>
   <v type="int" >        4       40       60       61       62 </v>
   <v type="int" >        4       37       38       38       59 </v>
   <v type="int" >        4       38       38       40       59 </v>
   <v type="int" >        4       38       40       59       61 </v>
   <v type="int" >        4       37       38       58       59 </v>
   <v type="int" >        4       38       58       59       59 </v>
   <v type="int" >        4       38       59       59       61 </v>
   <v type="int" >        4       34       35       37       58 </v>
   <v type="int" >        4       35       37       38       58 </v>
   <v type="int" >        4       35       38       58       59 </v>
   <v type="int" >        4       34       35       55       58 </v>
   <v type="int" >        4       35       55       56       58 </v>
   <v type="int" >        4       35       56       58       59 </v>
   <v type="int" >        4       30       31       34       55 </v>
   <v type="int" >        4       31       34       35       55 </v>
   <v type="int" >        4       31       35       55       56 </v>
   <v type="int" >        4       30       31       51       55 </v>
   <v type="int" >        4       31       51       52       55 </v>
   <v type="int" >        4       31       52       55       56 </v>
   <v type="int" >        4       25       26       30       51 </v>
   <v type="int" >        4       26       30       31       51 </v>
   <v type="int" >        4       26       31       51       52 </v>
   <v type="int" >        4       25       26       46       51 </v>
   <v type="int" >        4       26       46       47       51 </v>
   <v type="int" >        4       26       47       51       52 </v>
   <v type="int" >        4       40       41       42       61 </v>
   <v type="int" >        4       41       42       61       62 </v>
   <v type="int" >        4       42       61       62       63 </v>
   <v type="int" >        4       40       41       41       62 </v>
   <v type="int" >        4       41       41       42       62 </v>
   <v type="int" >        4       41       42       62       63 </v>
   <v type="int" >        4       40       41       61       62 </v>
   <v type="int" >        4       41       61       62       62 </v>
   <v type="int" >        4       41       62       62       63 </v>
   <v type="int" >        4       38       39       40       61 </v>
   <v type="int" >        4       39       40       41       61 </v>
   <v type="int" >        4       39       41       61       62 </v>
   <v type="int" >        4       38       39       59       61 </v>
   <v type="int" >        4       39       59       60       61 </v>
   <v type="int" >        4       39       60       61       62 </v>
   <v type="int" >        4       35       36       38       59 </v>
   <v type="int" >        4       36       38       39       59 </v>
   <v type="int" >        4       36       39       59       60 </v>
   <v type="int" >        4       35       36       56       59 </v>
   <v type="int" >        4       36       56       57       59 </v>
   <v type="int" >        4       36       57       59       60 </v>
   <v type="int" >        4       31       32       35       56 </v>
   <v type="int" >        4       32       35       36       56 </v>
   <v type="int" >        4       32       36       56       57 </v>
   <v type="int" >        4       31       32       52       56 </v>
   <v type="int" >        4       32       52       53       56 </v>
   <v type="int" >        4       32       53       56       57 </v>
   <v type="int" >        4       26       27       31       52 </v>
   <v type="int" >        4       27       31       32       52 </v>
   <v type="int" >        4       27       32       52       53 </v>
   <v type="int" >        4       26       27       47       52 </v>
   <v type="int" >        4       27       47       48       52 </v>
   <v type="int" >        4       27       48       52       53 </v>
   <v type="int" >        4       40       41       42       63 </v>
   <v type="int" >        4       40       41       62       63 </v>
   <v type="int" >        4       40       61       62       63 </v>
   <v type="int" >        4       38       39       41       62 </v>
   <v type="int" >        4       38       40       41       62 </v>
   <v type="int" >        4       38       40       61       62 </v>
   <v type="int" >        4       38       39       60       62 </v>
   <v type="int" >        4       38       59       60       62 </v>
   <v type="int" >        4       38       59       61       62 </v>
   <v type="int" >        4       35       36       39       60 </v>
   <v type="int" >        4       35       38       39       60 </v>
   <v type="int" >        4       35       38       59       60 </v>
   <v type="int" >        4       35       36       57       60 </v>
   <v type="int" >        4       35       56       57       60 </v>
   <v type="int" >        4       35       56       59       60 </v>
   <v type="int" >        4       31       32       36       57 </v>
   <v type="int" >        4       31       35       36       57 </v>
   <v type="int" >        4       31       35       56       57 </v>
   <v type="int" >        4       31       32       53       57 </v>
   <v type="int" >        4       31       52       53       57 </v>
   <v type="int" >        4       31       52       56       57 </v>
   <v type="int" >        4       26       27       32       53 </v>
   <v type="int" >        4       26       31       32       53 </v>
   <v type="int" >        4       26       31       52       53 </v>
   <v type="int" >        4       26       27       48       53 </v>
   <v type="int" >        4       26       47       48       53 </v>
   <v type="int" >        4       26       47       52       53 </v>
   <v type="int" >        4       37       38       40       61 </v>
   <v type="int" >        4       37       38       59       61 </v>
   <v type="int" >        4       37       58       59       61 </v>
   <v type="int" >        4       34       35       38       59 </v>
   <v type="int" >        4       34       37       38       59 </v>
   <v type="int" >        4       34       37       58       59 </v>
   <v type="int" >        4       34       35       56       59 </v>
   <v type="int" >        4       34       55       56       59 </v>
   <v type="int" >        4       34       55       58       59 </v>
   <v type="int" >        4       30       31       35       56 </v>
   <v type="int" >        4       30       34       35       56 </v>
   <v type="int" >        4       30       34       55       56 </v>
   <v type="int" >        4       30       31       52       56 </v>
   <v type="int" >        4       30       51       52       56 </v>
   <v type="int" >        4       30       51       55       56 </v>
   <v type="int" >        4       25       26       31       52 </v>
   <v type="int" >        4       25       30       31       52 </v>
   <v type="int" >        4       25       30       51       52 </v>
   <v type="int" >        4       25       26       47       52 </v>
   <v type="int" >        4       25       46       47       52 </v>
   <v type="int" >        4       25       46       51       52 </v>
   <v type="int" >        4       33       34       37       58 </v>
   <v type="int" >        4       33       34       55       58 </v>
   <v type="int" >        4       33       54       55       58 </v>
   <v type="int" >        4       29       30       34       55 </v>
   <v type="int" >        4       29       33       34       55 </v>
   <v type="int" >        4       29       33       54       55 </v>
   <v type="int" >        4       29       30       51       55 </v>
   <v type="int" >        4       29       50       51       55 </v>
   <v type="int" >        4       29       50       54       55 </v>
   <v type="int" >        4       24       25       30       51 </v>
   <v type="int" >        4       24       29       30       51 </v>
   <v type="int" >        4       24       29       50       51 </v>
   <v type="int" >        4       24       25       46       51 </v>
   <v type="int" >        4       24       45       46       51 </v>
   <v type="int" >        4       24       45       50       51 </v>
   <v type="int" >        4       28       29       33       54 </v>
   <v type="int" >        4       28       29       50       54 </v>
   <v type="int" >        4       28       49       50       54 </v>
   <v type="int" >        4       23       24       29       50 </v>
   <v type="int" >        4       23       28       29       50 </v>
   <v type="int" >        4       23       28       49       50 </v>
   <v type="int" >        4       23       24       45       50 </v>
   <v type="int" >        4       23       44       45       50 </v>
   <v type="int" >        4       23       44       49       50 </v>
   <v type="int" >        4       22       23       28       49 </v>
   <v type="int" >        4       22       23       44       49 </v>
   <v type="int" >        4       22       43       44       49 </v>
   <v type="int" >        4       43       44       49       64 </v>
   <v type="int" >        4       44       49       64       65 </v>
   <v type="int" >        4       49       64       65       70 </v>
   <v type="int" >        4       44       45       50       65 </v>
   <v type="int" >        4       44       49       50       65 </v>
   <v type="int" >        4       49       50       65       70 </v>
   <v type="int" >        4       45       50       65       66 </v>
   <v type="int" >        4       50       65       66       71 </v>
   <v type="int" >        4       50       65       70       71 </v>
   <v type="int" >        4       45       46       51       66 </v>
   <v type="int" >        4       45       50       51       66 </v>
   <v type="int" >        4       50       51       66       71 </v>
   <v type="int" >        4       46       51       66       67 </v>
   <v type="int" >        4       51       66       67       72 </v>
   <v type="int" >        4       51       66       71       72 </v>
   <v type="int" >        4       46       47       52       67 </v>
   <v type="int" >        4       46       51       52       67 </v>
   <v type="int" >        4       51       52       67       72 </v>
   <v type="int" >        4       47       52       67       68 </v>
   <v type="int" >        4       52       67       68       73 </v>
   <v type="int" >        4       52       67       72       73 </v>
   <v type="int" >        4       47       48       53       68 </v>
   <v type="int" >        4       47       52       53       68 </v>
   <v type="int" >        4       52       53       68       73 </v>
   <v type="int" >        4       48       53       68       69 </v>
   <v type="int" >        4       53       68       69       74 </v>
   <v type="int" >        4       53       68       73       74 </v>
   <v type="int" >        4       47       48       52       69 </v>
   <v type="int" >        4       48       52       53       69 </v>
   <v type="int" >        4       52       53       69       74 </v>
   <v type="int" >        4       47       52       68       69 </v>
   <v type="int" >        4       52       68       69       73 </v>
   <v type="int" >        4       52       69       73       74 </v>
   <v type="int" >        4       46       47       51       68 </v>
   <v type="int" >        4       47       51       52       68 </v>
   <v type="int" >        4       51       52       68       73 </v>
   <v type="int" >        4       46       51       67       68 </v>
   <v type="int" >        4       51       67       68       72 </v>
   <v type="int" >        4       51       68       72       73 </v>
   <v type="int" >        4       45       46       50       67 </v>
   <v type="int" >        4       46       50       51       67 </v>
   <v type="int" >        4       50       51       67       72 </v>
   <v type="int" >        4       45       50       66       67 </v>
   <v type="int" >        4       50       66       67       71 </v>
   <v type="int" >        4       50       67       71       72 </v>
   <v type="int" >        4       44       45       49       66 </v>
   <v type="int" >        4       45       49       50       66 </v>
   <v type="int" >        4       49       50       66       71 </v>
   <v type="int" >        4       44       49       65       66 </v>
   <v type="int" >        4       49       65       66       70 </v>
   <v type="int" >        4       49       66       70       71 </v>
   <v type="int" >        4       43       44       44       65 </v>
   <v type="int" >        4       44       44       49       65 </v>
   <v type="int" >        4       44       49       65       70 </v>
   <v type="int" >        4       43       44       64       65 </v>
   <v type="int" >        4       44       64       65       65 </v>
   <v type="int" >        4       44       65       65       70 </v>
   <v type="int" >        4       49       50       54       70 </v>
   <v type="int" >        4       50       54       70       71 </v>
   <v type="int" >        4       54       70       71       75 </v>
   <v type="int" >        4       50       51       55       71 </v>
   <v type="int" >        4       50       54       55       71 </v>
   <v type="int" >        4       54       55       71       75 </v>
   <v type="int" >        4       51       55       71       72 </v>
   <v type="int" >        4       55       71       72       76 </v>
   <v type="int" >        4       55       71       75       76 </v>
   <v type="int" >        4       51       52       56       72 </v>
   <v type="int" >        4       51       55       56       72 </v>
   <v type="int" >        4       55       56       72       76 </v>
   <v type="int" >        4       52       56       72       73 </v>
   <v type="int" >        4       56       72       73       77 </v>
   <v type="int" >        4       56       72       76       77 </v>
   <v type="int" >        4       52       53       57       73 </v>
   <v type="int" >        4       52       56       57       73 </v>
   <v type="int" >        4       56       57       73       77 </v>
   <v type="int" >        4       53       57       73       74 </v>
   <v type="int" >        4       57       73       74       78 </v>
   <v type="int" >        4       57       73       77       78 </v>
   <v type="int" >        4       52       53       56       74 </v>
   <v type="int" >        4       53       56       57       74 </v>
   <v type="int" >        4       56       57       74       78 </v>
   <v type="int" >        4       52       56       73       74 </v>
   <v type="int" >        4       56       73       74       77 </v>
   <v type="int" >        4       56       74       77       78 </v>
   <v type="int" >        4       51       52       55       73 </v>
   <v type="int" >        4       52       55       56       73 </v>
   <v type="int" >        4       55       56       73       77 </v>
   <v type="int" >        4       51       55       72       73 </v>
   <v type="int" >        4       55       72       73       76 </v>
   <v type="int" >        4       55       73       76       77 </v>
   <v type="int" >        4       50       51       54       72 </v>
   <v type="int" >        4       51       54       55       72 </v>
   <v type="int" >        4       54       55       72       76 </v>
   <v type="int" >        4       50       54       71       72 </v>
   <v type="int" >        4       54       71       72       75 </v>
   <v type="int" >        4       54       72       75       76 </v>
   <v type="int" >        4       49       50       50       71 </v>
   <v type="int" >        4       50       50       54       71 </v>
   <v type="int" >        4       50       54       71       75 </v>
   <v type="int" >        4       49       50       70       71 </v>
   <v type="int" >        4       50       70       71       71 </v>
   <v type="int" >        4       50       71       71       75 </v>
   <v type="int" >        4       44       45       49       70 </v>
   <v type="int" >        4       45       49       50       70 </v>
   <v type="int" >        4       45       50       70       71 </v>
   <v type="int" >        4       44       45       65       70 </v>
   <v type="int" >        4       45       65       66       70 </v>
   <v type="int" >        4       45       66       70       71 </v>
   <v type="int" >        4       54       55       58       75 </v>
   <v type="int" >        4       55       58       75       76 </v>
   <v type="int" >        4       58       75       76       79 </v>
   <v type="int" >        4       55       56       59       76 </v>
   <v type="int" >        4       55       58       59       76 </v>
   <v type="int" >        4       58       59       76       79 </v>
   <v type="int" >        4       56       59       76       77 </v>
   <v type="int" >        4       59       76       77       80 </v>
   <v type="int" >        4       59       76       79       80 </v>
   <v type="int" >        4       56       57       60       77 </v>
   <v type="int" >        4       56       59       60       77 </v>
   <v type="int" >        4       59       60       77       80 </v>
   <v type="int" >        4       57       60       77       78 </v>
   <v type="int" >        4       60       77       78       81 </v>
   <v type="int" >        4       60       77       80       81 </v>
   <v type="int" >        4       56       57       59       78 </v>
   <v type="int" >        4       57       59       60       78 </v>
   <v type="int" >        4       59       60       78       81 </v>
   <v type="int" >        4       56       59       77       78 </v>
   <v type="int" >        4       59       77       78       80 </v>
   <v type="int" >        4       59       78       80       81 </v>
   <v type="int" >        4       55       56       58       77 </v>
   <v type="int" >        4       56       58       59       77 </v>
   <v type="int" >        4       58       59       77       80 </v>
   <v type="int" >        4       55       58       76       77 </v>
   <v type="int" >        4       58       76       77       79 </v>
   <v type="int" >        4       58       77       79       80 </v>
   <v type="int" >        4       54       55       55       76 </v>
   <v type="int" >        4       55       55       58       76 </v>
   <v type="int" >        4       55       58       76       79 </v>
   <v type="int" >        4       54       55       75       76 </v>
   <v type="int" >        4       55       75       76       76 </v>
   <v type="int" >        4       55       76       76       79 </v>
   <v type="int" >        4       50       51       54       75 </v>
   <v type="int" >        4       51       54       55       75 </v>
   <v type="int" >        4       51       55       75       76 </v>
   <v type="int" >        4       50       51       71       75 </v>
   <v type="int" >        4       51       71       72       75 </v>
   <v type="int" >        4       51       72       75       76 </v>
   <v type="int" >        4       45       46       50       71 </v>
   <v type="int" >        4       46       50       51       71 </v>
   <v type="int" >        4       46       51       71       72 </v>
   <v type="int" >        4       45       46       66       71 </v>
   <v type="int" >        4       46       66       67       71 </v>
   <v type="int" >        4       46       67       71       72 </v>
   <v type="int" >        4       58       59       61       79 </v>
   <v type="int" >        4       59       61       79       80 </v>
   <v type="int" >        4       61       79       80       82 </v>
   <v type="int" >        4       59       60       62       80 </v>
   <v type="int" >        4       59       61       62       80 </v>
   <v type="int" >        4       61       62       80       82 </v>
   <v type="int" >        4       60       62       80       81 </v>
   <v type="int" >        4       62       80       81       83 </v>
   <v type="int" >        4       62       80       82       83 </v>
   <v type="int" >        4       59       60       61       81 </v>
   <v type="int" >        4       60       61       62       81 </v>
   <v type="int" >        4       61       62       81       83 </v>
   <v type="int" >        4       59       61       80       81 </v>
   <v type="int" >        4       61       80       81       82 </v>
   <v type="int" >        4       61       81       82       83 </v>
   <v type="int" >        4       58       59       59       80 </v>
   <v type="int" >        4       59       59       61       80 </v>
   <v type="int" >        4       59       61       80       82 </v>
   <v type="int" >        4       58       59       79       80 </v>
   <v type="int" >        4       59       79       80       80 </v>
   <v type="int" >        4       59       80       80       82 </v>
   <v type="int" >        4       55       56       58       79 </v>
   <v type="int" >        4       56       58       59       79 </v>
   <v type="int" >        4       56       59       79       80 </v>
   <v type="int" >        4       55       56       76       79 </v>
   <v type="int" >        4       56       76       77       79 </v>
   <v type="int" >        4       56       77       79       80 </v>
   <v type="int" >        4       51       52       55       76 </v>
   <v type="int" >        4       52       55       56       76 </v>
   <v type="int" >        4       52       56       76       77 </v>
   <v type="int" >        4       51       52       72       76 </v>
   <v type="int" >        4       52       72       73       76 </v>
   <v type="int" >        4       52       73       76       77 </v>
   <v type="int" >        4       46       47       51       72 </v>
   <v type="int" >        4       47       51       52       72 </v>
   <v type="int" >        4       47       52       72       73 </v>
   <v type="int" >        4       46       47       67       72 </v>
   <v type="int" >        4       47       67       68       72 </v>
   <v type="int" >        4       47       68       72       73 </v>
   <v type="int" >        4       61       62       63       82 </v>
   <v type="int" >        4       62       63       82       83 </v>
   <v type="int" >        4       63       82       83       84 </v>
   <v type="int" >        4       61       62       62       83 </v>
   <v type="int" >        4       62       62       63       83 </v>
   <v type="int" >        4       62       63       83       84 </v>
   <v type="int" >        4       61       62       82       83 </v>
   <v type="int" >        4       62       82       83       83 </v>
   <v type="int" >        4       62       83       83       84 </v>
   <v type="int" >        4       59       60       61       82 </v>
   <v type="int" >        4       60       61       62       82 </v>
   <v type="int" >        4       60       62       82       83 </v>
   <v type="int" >        4       59       60       80       82 </v>
   <v type="int" >        4       60       80       81       82 </v>
   <v type="int" >        4       60       81       82       83 </v>
   <v type="int" >        4       56       57       59       80 </v>
   <v type="int" >        4       57       59       60       80 </v>
   <v type="int" >        4       57       60       80       81 </v>
   <v type="int" >        4       56       57       77       80 </v>
   <v type="int" >        4       57       77       78       80 </v>
   <v type="int" >        4       57       78       80       81 </v>
   <v type="int" >        4       52       53       56       77 </v>
   <v type="int" >        4       53       56       57       77 </v>
   <v type="int" >        4       53       57       77       78 </v>
   <v type="int" >        4       52       53       73       77 </v>
   <v type="int" >        4       53       73       74       77 </v>
   <v type="int" >        4       53       74       77       78 </v>
   <v type="int" >        4       47       48       52       73 </v>
   <v type="int" >        4       48       52       53       73 </v>
   <v type="int" >        4       48       53       73       74 </v>
   <v type="int" >        4       47       48       68       73 </v>
   <v type="int" >        4       48       68       69       73 </v>
   <v type="int" >        4       48       69       73       74 </v>
   <v type="int" >        4       61       62       63       84 </v>
   <v type="int" >        4       61       62       83       84 </v>
   <v type="int" >        4       61       82       83       84 </v>
   <v type="int" >        4       59       60       62       83 </v>
   <v type="int" >        4       59       61       62       83 </v>
   <v type="int" >        4       59       61       82       83 </v>
   <v type="int" >        4       59       60       81       83 </v>
   <v type="int" >        4       59       80       81       83 </v>
   <v type="int" >        4       59       80       82       83 </v>
   <v type="int" >        4       56       57       60       81 </v>
   <v type="int" >        4       56       59       60       81 </v>
   <v type="int" >        4       56       59       80       81 </v>
   <v type="int" >        4       56       57       78       81 </v>
   <v type="int" >        4       56       77       78       81 </v>
   <v type="int" >        4       56       77       80       81 </v>
   <v type="int" >        4       52       53       57       78 </v>
   <v type="int" >        4       52       56       57       78 </v>
   <v type="int" >        4       52       56       77       78 </v>
   <v type="int" >        4       52       53       74       78 </v>
   <v type="int" >        4       52       73       74       78 </v>
   <v type="int" >        4       52       73       77       78 </v>
   <v type="int" >        4       47       48       53       74 </v>
   <v type="int" >        4       47       52       53       74 </v>
   <v type="int" >        4       47       52       73       74 </v>
   <v type="int" >        4       47       48       69       74 </v>
   <v type="int" >        4       47       68       69       74 </v>
   <v type="int" >        4       47       68       73       74 </v>
   <v type="int" >        4       58       59       61       82 </v>
   <v type="int" >        4       58       59       80       82 </v>
   <v type="int" >        4       58       79       80       82 </v>
   <v type="int" >        4       55       56       59       80 </v>
   <v type="int" >        4       55       58       59       80 </v>
   <v type="int" >        4       55       58       79       80 </v>
   <v type="int" >        4       55       56       77       80 </v>
   <v type="int" >        4       55       76       77       80 </v>
   <v type="int" >        4       55       76       79       80 </v>
   <v type="int" >        4       51       52       56       77 </v>
   <v type="int" >        4       51       55       56       77 </v>
   <v type="int" >        4       51       55       76       77 </v>
   <v type="int" >        4       51       52       73       77 </v>
   <v type="int" >        4       51       72       73       77 </v>
   <v type="int" >        4       51       72       76       77 </v>
   <v type="int" >        4       46       47       52       73 </v>
   <v type="int" >        4       46       51       52       73 </v>
   <v type="int" >        4       46       51       72       73 </v>
   <v type="int" >        4       46       47       68       73 </v>
   <v type="int" >        4       46       67       68       73 </v>
   <v type="int" >        4       46       67       72       73 </v>
   <v type="int" >        4       54       55       58       79 </v>
   <v type="int" >        4       54       55       76       79 </v>
   <v type="int" >        4       54       75       76       79 </v>
   <v type="int" >        4       50       51       55       76 </v>
   <v type="int" >        4       50       54       55       76 </v>
   <v type="int" >        4       50       54       75       76 </v>
   <v type="int" >        4       50       51       72       76 </v>
   <v type="int" >        4       50       71       72       76 </v>
   <v type="int" >        4       50       71       75       76 </v>
   <v type="int" >        4       45       46       51       72 </v>
   <v type="int" >        4       45       50       51       72 </v>
   <v type="int" >        4       45       50       71       72 </v>
   <v type="int" >        4       45       46       67       72 </v>
   <v type="int" >        4       45       66       67       72 </v>
   <v type="int" >        4       45       66       71       72 </v>
   <v type="int" >        4       49       50       54       75 </v>
   <v type="int" >        4       49       50       71       75 </v>
   <v type="int" >        4       49       70       71       75 </v>
   <v type="int" >        4       44       45       50       71 </v>
   <v type="int" >        4       44       49       50       71 </v>
   <v type="int" >        4       44       49       70       71 </v>
   <v type="int" >        4       44       45       66       71 </v>
   <v type="int" >        4       44       65       66       71 </v>
   <v type="int" >        4       44       65       70       71 </v>
   <v type="int" >        4       43       44       49       70 </v>
   <v type="int" >        4       43       44       65       70 </v>
   <v type="int" >        4       43       64       65       70 </v>
   <v type="int" >        4       64       65       70       85 </v>
   <v type="int" >        4       65       70       85       86 </v>
   <v type="int" >        4       70       85       86       91 </v>
   <v type="int" >        4       65       66       71       86 </v>
   <v type="int" >        4       65       70       71       86 </v>
   <v type="int" >        4       70       71       86       91 </v>
   <v type="int" >        4       66       71       86       87 </v>
   <v type="int" >        4       71       86       87       92 </v>
   <v type="int" >        4       71       86       91       92 </v>
   <v type="int" >        4       66       67       72       87 </v>
   <v type="int" >        4       66       71       72       87 </v>
   <v type="int" >        4       71       72       87       92 </v>
   <v type="int" >        4       67       72       87       88 </v>
   <v type="int" >        4       72       87       88       93 </v>
   <v type="int" >        4       72       87       92       93 </v>
   <v type="int" >        4       67       68       73       88 </v>
   <v type="int" >        4       67       72       73       88 </v>
   <v type="int" >        4       72       73       88       93 </v>
   <v type="int" >        4       68       73       88       89 </v>
   <v type="int" >        4       73       88       89       94 </v>
   <v type="int" >        4       73       88       93       94 </v>
   <v type="int" >        4       68       69       74       89 </v>
   <v type="int" >        4       68       73       74       89 </v>
   <v type="int" >        4       73       74       89       94 </v>
   <v type="int" >        4       69       74       89       90 </v>
   <v type="int" >        4       74       89       90       95 </v>
   <v type="int" >        4       74       89       94       95 </v>
   <v type="int" >        4       68       69       73       90 </v>
   <v type="int" >        4       69       73       74       90 </v>
   <v type="int" >        4       73       74       90       95 </v>
   <v type="int" >        4       68       73       89       90 </v>
   <v type="int" >        4       73       89       90       94 </v>
   <v type="int" >        4       73       90       94       95 </v>
   <v type="int" >        4       67       68       72       89 </v>
   <v type="int" >        4       68       72       73       89 </v>
   <v type="int" >        4       72       73       89       94 </v>
   <v type="int" >        4       67       72       88       89 </v>
   <v type="int" >        4       72       88       89       93 </v>
   <v type="int" >        4       72       89       93       94 </v>
   <v type="int" >        4       66       67       71       88 </v>
   <v type="int" >        4       67       71       72       88 </v>
   <v type="int" >        4       71       72       88       93 </v>
   <v type="int" >        4       66       71       87       88 </v>
   <v type="int" >        4       71       87       88       92 </v>
   <v type="int" >        4       71       88       92       93 </v>
   <v type="int" >        4       65       66       70       87 </v>
   <v type="int" >        4       66       70       71       87 </v>
   <v type="int" >        4       70       71       87       92 </v>
   <v type="int" >        4       65       70       86       87 </v>
   <v type="int" >        4       70       86       87       91 </v>
   <v type="int" >        4       70       87       91       92 </v>
   <v type="int" >        4       64       65       65       86 </v>
   <v type="int" >        4       65       65       70       86 </v>
   <v type="int" >        4       65       70       86       91 </v>
   <v type="int" >        4       64       65       85       86 </v>
   <v type="int" >        4       65       85       86       86 </v>
   <v type="int" >        4       65       86       86       91 </v>
   <v type="int" >        4       70       71       75       91 </v>
   <v type="int" >        4       71       75       91       92 </v>
   <v type="int" >        4       75       91       92       96 </v>
   <v type="int" >        4       71       72       76       92 </v>
   <v type="int" >        4       71       75       76       92 </v>
   <v type="int" >        4       75       76       92       96 </v>
   <v type="int" >        4       72       76       92       93 </v>
   <v type="int" >        4       76       92       93       97 </v>
[...]
       <r>    0.1123    1.0000 </r>
       <r>    0.7412    1.0000 </r>
       <r>    0.7412    1.0000 </r>
       <r>    0.7731    1.0000 </r>
       <r>    0.7731    1.0000 </r>
       <r>    1.0802    1.0000 </r>
       <r>    1.0802    1.0000 </r>
       <r>    3.4664    1.0000 </r>
       <r>    3.4664    1.0000 </r>
       <r>    3.5049    1.0000 </r>
       <r>    3.5049    1.0000 </r>
       <r>    4.0577    1.0000 </r>
       <r>    4.0577    1.0000 </r>
       <r>    8.1586    0.0000 </r>
       <r>    8.1586    0.0000 </r>
       <r>    8.2666    0.0000 </r>
       <r>    8.2666    0.0000 </r>
       <r>    8.4780    0.0000 </r>
       <r>    8.4780    0.0000 </r>
       <r>   11.0125    0.0000 </r>
       <r>   11.0125    0.0000 </r>
       <r>   11.9032    0.0000 </r>
       <r>   11.9032    0.0000 </r>
       <r>   12.2167    0.0000 </r>
       <r>   12.2167    0.0000 </r>
       <r>   12.2349    0.0000 </r>
       <r>   12.2349    0.0000 </r>
       <r>   12.5092    0.0000 </r>
       <r>   12.5092    0.0000 </r>
       <r>   12.9737    0.0000 </r>
       <r>   12.9737    0.0000 </r>
       <r>   13.9688    0.0000 </r>
       <r>   13.9688    0.0000 </r>
      </set>
      <set comment="kpoint 126">
       <r>  -52.2528    1.0000 </r>
       <r>  -52.2528    1.0000 </r>
       <r>  -28.5731    1.0000 </r>
       <r>  -28.5731    1.0000 </r>
       <r>  -28.5731    1.0000 </r>
       <r>  -28.5731    1.0000 </r>
       <r>  -28.5353    1.0000 </r>
       <r>  -28.5353    1.0000 </r>
       <r>  -28.5301    1.0000 </r>
       <r>  -28.5301    1.0000 </r>
       <r>  -12.2630    1.0000 </r>
       <r>  -12.2630    1.0000 </r>
       <r>  -12.1950    1.0000 </r>
       <r>  -12.1950    1.0000 </r>
       <r>  -12.1950    1.0000 </r>
       <r>  -12.1950    1.0000 </r>
       <r>  -10.6632    1.0000 </r>
       <r>  -10.6632    1.0000 </r>
       <r>  -10.4515    1.0000 </r>
       <r>  -10.4515    1.0000 </r>
       <r>  -10.4515    1.0000 </r>
       <r>  -10.4515    1.0000 </r>
       <r>   -0.3276    1.0000 </r>
       <r>   -0.3276    1.0000 </r>
       <r>   -0.0142    1.0000 </r>
       <r>   -0.0142    1.0000 </r>
       <r>    0.0016    1.0000 </r>
       <r>    0.0016    1.0000 </r>
       <r>    0.7610    1.0000 </r>
       <r>    0.7610    1.0000 </r>
       <r>    0.7610    1.0000 </r>
       <r>    0.7610    1.0000 </r>
       <r>    1.0293    1.0000 </r>
       <r>    1.0293    1.0000 </r>
       <r>    3.5183    1.0000 </r>
       <r>    3.5183    1.0000 </r>
       <r>    3.5183    1.0000 </r>
       <r>    3.5183    1.0000 </r>
       <r>    4.1444    1.0000 </r>
       <r>    4.1444    1.0000 </r>
       <r>    8.2828    0.0000 </r>
       <r>    8.2828    0.0000 </r>
       <r>    8.2828    0.0000 </r>
       <r>    8.2828    0.0000 </r>
       <r>    8.5640    0.0000 </r>
       <r>    8.5640    0.0000 </r>
       <r>   10.9888    0.0000 </r>
       <r>   10.9888    0.0000 </r>
       <r>   11.8204    0.0000 </r>
       <r>   11.8204    0.0000 </r>
       <r>   12.2656    0.0000 </r>
       <r>   12.2656    0.0000 </r>
       <r>   12.2656    0.0000 </r>
       <r>   12.2656    0.0000 </r>
       <r>   12.6166    0.0000 </r>
       <r>   12.6166    0.0000 </r>
       <r>   13.0205    0.0000 </r>
       <r>   13.0205    0.0000 </r>
       <r>   14.1449    0.0000 </r>
       <r>   14.1449    0.0000 </r>
      </set>
     </set>
    </set>
   </array>
  </eigenvalues>
  <separator name="orbital magnetization" >
   <v name="MAGDIPOLOUT">      0.00000000      0.00000000      0.00000000</v>
  </separator>
  <dos>
   <i name="efermi">      4.19967258 </i>
   <total>
    <array>
     <dimension dim="1">gridpoints</dimension>
     <dimension dim="2">spin</dimension>
     <field>energy</field>
     <field>total</field>
     <field>integrated</field>
     <set>
      <set comment="spin 1">
       <r>   -55.5914     0.0000     0.0000 </r>
       <r>   -55.3468     0.0000     0.0000 </r>
       <r>   -55.1023     0.0000     0.0000 </r>
       <r>   -54.8577     0.0000     0.0000 </r>
       <r>   -54.6132     0.0000     0.0000 </r>
       <r>   -54.3687     0.0000     0.0000 </r>
       <r>   -54.1241     0.0000     0.0000 </r>
       <r>   -53.8796     0.0000     0.0000 </r>
       <r>   -53.6350     0.0000     0.0000 </r>
       <r>   -53.3905     0.0000     0.0000 </r>
       <r>   -53.1459     0.0000     0.0000 </r>
       <r>   -52.9014     0.0000     0.0000 </r>
       <r>   -52.6568     0.0000     0.0000 </r>
       <r>   -52.4123     0.0000     0.0000 </r>
       <r>   -52.1678     0.0000     4.0000 </r>
       <r>   -51.9232     0.0000     4.0000 </r>
       <r>   -51.6787     0.0000     4.0000 </r>
       <r>   -51.4341     0.0000     4.0000 </r>
       <r>   -51.1896     0.0000     4.0000 </r>
       <r>   -50.9450     0.0000     4.0000 </r>
       <r>   -50.7005     0.0000     4.0000 </r>
       <r>   -50.4559     0.0000     4.0000 </r>
       <r>   -50.2114     0.0000     4.0000 </r>
       <r>   -49.9669     0.0000     4.0000 </r>
       <r>   -49.7223     0.0000     4.0000 </r>
       <r>   -49.4778     0.0000     4.0000 </r>
       <r>   -49.2332     0.0000     4.0000 </r>
       <r>   -48.9887     0.0000     4.0000 </r>
       <r>   -48.7441     0.0000     4.0000 </r>
       <r>   -48.4996     0.0000     4.0000 </r>
       <r>   -48.2551     0.0000     4.0000 </r>
       <r>   -48.0105     0.0000     4.0000 </r>
       <r>   -47.7660     0.0000     4.0000 </r>
       <r>   -47.5214     0.0000     4.0000 </r>
       <r>   -47.2769     0.0000     4.0000 </r>
       <r>   -47.0323     0.0000     4.0000 </r>
       <r>   -46.7878     0.0000     4.0000 </r>
       <r>   -46.5432     0.0000     4.0000 </r>
       <r>   -46.2987     0.0000     4.0000 </r>
       <r>   -46.0542     0.0000     4.0000 </r>
       <r>   -45.8096     0.0000     4.0000 </r>
       <r>   -45.5651     0.0000     4.0000 </r>
       <r>   -45.3205     0.0000     4.0000 </r>
       <r>   -45.0760     0.0000     4.0000 </r>
       <r>   -44.8314     0.0000     4.0000 </r>
       <r>   -44.5869     0.0000     4.0000 </r>
       <r>   -44.3423     0.0000     4.0000 </r>
       <r>   -44.0978     0.0000     4.0000 </r>
       <r>   -43.8533     0.0000     4.0000 </r>
       <r>   -43.6087     0.0000     4.0000 </r>
       <r>   -43.3642     0.0000     4.0000 </r>
       <r>   -43.1196     0.0000     4.0000 </r>
       <r>   -42.8751     0.0000     4.0000 </r>
       <r>   -42.6305     0.0000     4.0000 </r>
       <r>   -42.3860     0.0000     4.0000 </r>
       <r>   -42.1414     0.0000     4.0000 </r>
       <r>   -41.8969     0.0000     4.0000 </r>
       <r>   -41.6524     0.0000     4.0000 </r>
       <r>   -41.4078     0.0000     4.0000 </r>
       <r>   -41.1633     0.0000     4.0000 </r>
       <r>   -40.9187     0.0000     4.0000 </r>
       <r>   -40.6742     0.0000     4.0000 </r>
       <r>   -40.4296     0.0000     4.0000 </r>
       <r>   -40.1851     0.0000     4.0000 </r>
       <r>   -39.9406     0.0000     4.0000 </r>
       <r>   -39.6960     0.0000     4.0000 </r>
       <r>   -39.4515     0.0000     4.0000 </r>
       <r>   -39.2069     0.0000     4.0000 </r>
       <r>   -38.9624     0.0000     4.0000 </r>
       <r>   -38.7178     0.0000     4.0000 </r>
       <r>   -38.4733     0.0000     4.0000 </r>
       <r>   -38.2287     0.0000     4.0000 </r>
       <r>   -37.9842     0.0000     4.0000 </r>
       <r>   -37.7397     0.0000     4.0000 </r>
       <r>   -37.4951     0.0000     4.0000 </r>
       <r>   -37.2506     0.0000     4.0000 </r>
       <r>   -37.0060     0.0000     4.0000 </r>
       <r>   -36.7615     0.0000     4.0000 </r>
       <r>   -36.5169     0.0000     4.0000 </r>
       <r>   -36.2724     0.0000     4.0000 </r>
       <r>   -36.0278     0.0000     4.0000 </r>
       <r>   -35.7833     0.0000     4.0000 </r>
       <r>   -35.5388     0.0000     4.0000 </r>
       <r>   -35.2942     0.0000     4.0000 </r>
       <r>   -35.0497     0.0000     4.0000 </r>
       <r>   -34.8051     0.0000     4.0000 </r>
       <r>   -34.5606     0.0000     4.0000 </r>
       <r>   -34.3160     0.0000     4.0000 </r>
       <r>   -34.0715     0.0000     4.0000 </r>
       <r>   -33.8269     0.0000     4.0000 </r>
       <r>   -33.5824     0.0000     4.0000 </r>
       <r>   -33.3379     0.0000     4.0000 </r>
       <r>   -33.0933     0.0000     4.0000 </r>
       <r>   -32.8488     0.0000     4.0000 </r>
       <r>   -32.6042     0.0000     4.0000 </r>
       <r>   -32.3597     0.0000     4.0000 </r>
       <r>   -32.1151     0.0000     4.0000 </r>
       <r>   -31.8706     0.0000     4.0000 </r>
       <r>   -31.6260     0.0000     4.0000 </r>
       <r>   -31.3815     0.0000     4.0000 </r>
       <r>   -31.1370     0.0000     4.0000 </r>
       <r>   -30.8924     0.0000     4.0000 </r>
       <r>   -30.6479     0.0000     4.0000 </r>
       <r>   -30.4033     0.0000     4.0000 </r>
       <r>   -30.1588     0.0000     4.0000 </r>
       <r>   -29.9142     0.0000     4.0000 </r>
       <r>   -29.6697     0.0000     4.0000 </r>
       <r>   -29.4252     0.0000     4.0000 </r>
       <r>   -29.1806     0.0000     4.0000 </r>
       <r>   -28.9361     0.0000     4.0000 </r>
       <r>   -28.6915     0.0000     4.0000 </r>
       <r>   -28.4470     0.0000    20.0000 </r>
       <r>   -28.2024     0.0000    20.0000 </r>
       <r>   -27.9579     0.0000    20.0000 </r>
       <r>   -27.7133     0.0000    20.0000 </r>
       <r>   -27.4688     0.0000    20.0000 </r>
       <r>   -27.2243     0.0000    20.0000 </r>
       <r>   -26.9797     0.0000    20.0000 </r>
       <r>   -26.7352     0.0000    20.0000 </r>
       <r>   -26.4906     0.0000    20.0000 </r>
       <r>   -26.2461     0.0000    20.0000 </r>
       <r>   -26.0015     0.0000    20.0000 </r>
       <r>   -25.7570     0.0000    20.0000 </r>
       <r>   -25.5124     0.0000    20.0000 </r>
       <r>   -25.2679     0.0000    20.0000 </r>
       <r>   -25.0234     0.0000    20.0000 </r>
       <r>   -24.7788     0.0000    20.0000 </r>
       <r>   -24.5343     0.0000    20.0000 </r>
       <r>   -24.2897     0.0000    20.0000 </r>
       <r>   -24.0452     0.0000    20.0000 </r>
       <r>   -23.8006     0.0000    20.0000 </r>
       <r>   -23.5561     0.0000    20.0000 </r>
       <r>   -23.3115     0.0000    20.0000 </r>
       <r>   -23.0670     0.0000    20.0000 </r>
       <r>   -22.8225     0.0000    20.0000 </r>
       <r>   -22.5779     0.0000    20.0000 </r>
       <r>   -22.3334     0.0000    20.0000 </r>
       <r>   -22.0888     0.0000    20.0000 </r>
       <r>   -21.8443     0.0000    20.0000 </r>
       <r>   -21.5997     0.0000    20.0000 </r>
       <r>   -21.3552     0.0000    20.0000 </r>
       <r>   -21.1106     0.0000    20.0000 </r>
       <r>   -20.8661     0.0000    20.0000 </r>
       <r>   -20.6216     0.0000    20.0000 </r>
       <r>   -20.3770     0.0000    20.0000 </r>
       <r>   -20.1325     0.0000    20.0000 </r>
       <r>   -19.8879     0.0000    20.0000 </r>
       <r>   -19.6434     0.0000    20.0000 </r>
       <r>   -19.3988     0.0000    20.0000 </r>
       <r>   -19.1543     0.0000    20.0000 </r>
       <r>   -18.9098     0.0000    20.0000 </r>
       <r>   -18.6652     0.0000    20.0000 </r>
       <r>   -18.4207     0.0000    20.0000 </r>
       <r>   -18.1761     0.0000    20.0000 </r>
       <r>   -17.9316     0.0000    20.0000 </r>
       <r>   -17.6870     0.0000    20.0000 </r>
       <r>   -17.4425     0.0000    20.0000 </r>
       <r>   -17.1979     0.0000    20.0000 </r>
       <r>   -16.9534     0.0000    20.0000 </r>
       <r>   -16.7089     0.0000    20.0000 </r>
       <r>   -16.4643     0.0000    20.0000 </r>
       <r>   -16.2198     0.0000    20.0000 </r>
       <r>   -15.9752     0.0000    20.0000 </r>
       <r>   -15.7307     0.0000    20.0000 </r>
       <r>   -15.4861     0.0000    20.0000 </r>
       <r>   -15.2416     0.0000    20.0000 </r>
       <r>   -14.9970     0.0000    20.0000 </r>
       <r>   -14.7525     0.0000    20.0000 </r>
       <r>   -14.5080     0.0000    20.0000 </r>
       <r>   -14.2634     0.0000    20.0000 </r>
       <r>   -14.0189     0.0000    20.0000 </r>
       <r>   -13.7743     0.0000    20.0000 </r>
       <r>   -13.5298     0.0000    20.0000 </r>
       <r>   -13.2852     5.6202    20.4736 </r>
       <r>   -13.0407     4.6636    22.0970 </r>
       <r>   -12.7961     3.0832    23.0093 </r>
       <r>   -12.5516     1.5813    23.5927 </r>
       <r>   -12.3071    14.8857    24.4584 </r>
       <r>   -12.0625    11.1852    31.2757 </r>
       <r>   -11.8180     0.0000    32.0000 </r>
       <r>   -11.5734     0.0000    32.0000 </r>
       <r>   -11.3289     0.0000    32.0000 </r>
       <r>   -11.0843     0.0000    32.0000 </r>
       <r>   -10.8398     0.0348    32.0001 </r>
       <r>   -10.5952    12.6193    33.3270 </r>
       <r>   -10.3507    15.9605    39.1318 </r>
       <r>   -10.1062     7.9844    43.5415 </r>
       <r>    -9.8616     0.0000    44.0000 </r>
       <r>    -9.6171     0.0000    44.0000 </r>
       <r>    -9.3725     0.0000    44.0000 </r>
       <r>    -9.1280     0.0000    44.0000 </r>
       <r>    -8.8834     0.0000    44.0000 </r>
       <r>    -8.6389     0.0000    44.0000 </r>
       <r>    -8.3944     0.0000    44.0000 </r>
       <r>    -8.1498     0.0000    44.0000 </r>
       <r>    -7.9053     0.0000    44.0000 </r>
       <r>    -7.6607     0.0000    44.0000 </r>
       <r>    -7.4162     0.0000    44.0000 </r>
       <r>    -7.1716     0.0000    44.0000 </r>
       <r>    -6.9271     0.0000    44.0000 </r>
       <r>    -6.6825     0.0000    44.0000 </r>
       <r>    -6.4380     0.0000    44.0000 </r>
       <r>    -6.1935     0.0000    44.0000 </r>
       <r>    -5.9489     0.0000    44.0000 </r>
       <r>    -5.7044     0.0000    44.0000 </r>
       <r>    -5.4598     0.0000    44.0000 </r>
       <r>    -5.2153     0.0000    44.0000 </r>
       <r>    -4.9707     0.0000    44.0000 </r>
       <r>    -4.7262     0.0000    44.0000 </r>
       <r>    -4.4816     0.0000    44.0000 </r>
       <r>    -4.2371     0.0000    44.0000 </r>
       <r>    -3.9926     0.0000    44.0000 </r>
       <r>    -3.7480     0.0000    44.0000 </r>
       <r>    -3.5035     0.0000    44.0000 </r>
       <r>    -3.2589     0.0000    44.0000 </r>
       <r>    -3.0144     0.0000    44.0000 </r>
       <r>    -2.7698     0.0000    44.0000 </r>
       <r>    -2.5253     0.0000    44.0000 </r>
       <r>    -2.2807     0.0000    44.0000 </r>
       <r>    -2.0362     0.0000    44.0000 </r>
       <r>    -1.7917     0.0000    44.0000 </r>
       <r>    -1.5471     0.0000    44.0000 </r>
       <r>    -1.3026     0.0000    44.0000 </r>
       <r>    -1.0580     0.0000    44.0000 </r>
       <r>    -0.8135     0.0000    44.0000 </r>
       <r>    -0.5689     0.0000    44.0000 </r>
       <r>    -0.3244     2.9373    44.1189 </r>
       <r>    -0.0799     9.5801    46.2498 </r>
       <r>     0.1647    10.2430    48.4715 </r>
       <r>     0.4092     7.0527    50.3888 </r>
       <r>     0.6538     9.2989    52.4384 </r>
       <r>     0.8983     9.5328    54.7121 </r>
       <r>     1.1429    12.4885    57.3736 </r>
       <r>     1.3874     7.6295    61.5401 </r>
       <r>     1.6320     4.9754    63.0291 </r>
       <r>     1.8765     3.7308    64.0791 </r>
       <r>     2.1210     4.4622    65.0056 </r>
       <r>     2.3656     6.3458    66.2962 </r>
       <r>     2.6101     4.1344    67.6280 </r>
       <r>     2.8547     8.5386    69.5535 </r>
       <r>     3.0992    12.0059    72.1458 </r>
       <r>     3.3438    15.2792    75.1283 </r>
       <r>     3.5883     6.4499    77.3923 </r>
       <r>     3.8329     4.5080    78.7509 </r>
       <r>     4.0774     3.9586    79.8038 </r>
       <r>     4.3219     0.0000    80.0000 </r>
       <r>     4.5665     0.0000    80.0000 </r>
       <r>     4.8110     0.0000    80.0000 </r>
       <r>     5.0556     0.0000    80.0000 </r>
       <r>     5.3001     0.0000    80.0000 </r>
       <r>     5.5447     0.0000    80.0000 </r>
       <r>     5.7892     0.0000    80.0000 </r>
       <r>     6.0338     0.0000    80.0000 </r>
       <r>     6.2783     1.5888    80.1448 </r>
       <r>     6.5228     2.1578    80.6636 </r>
       <r>     6.7674     2.6239    81.2387 </r>
       <r>     7.0119     3.3369    81.9904 </r>
       <r>     7.2565     3.7907    82.8706 </r>
       <r>     7.5010     5.4231    83.9768 </r>
       <r>     7.7456     6.9785    85.4847 </r>
       <r>     7.9901    17.7028    88.1446 </r>
       <r>     8.2347     6.4434    90.3985 </r>
       <r>     8.4792     3.3894    91.6717 </r>
       <r>     8.7237     1.6141    92.1932 </r>
       <r>     8.9683     2.0021    92.6412 </r>
       <r>     9.2128     2.3089    93.1495 </r>
       <r>     9.4574     2.9107    93.7775 </r>
       <r>     9.7019     2.4648    94.4544 </r>
       <r>     9.9465     2.2005    95.0114 </r>
       <r>    10.1910     2.3848    95.5689 </r>
       <r>    10.4355     2.6091    96.1751 </r>
       <r>    10.6801     3.1455    96.8676 </r>
       <r>    10.9246     3.8484    97.7465 </r>
       <r>    11.1692     4.3727    98.7446 </r>
       <r>    11.4137     5.8970   100.0872 </r>
       <r>    11.6583     7.1149   101.6245 </r>
       <r>    11.9028     9.1689   103.6177 </r>
       <r>    12.1474    11.6448   106.3532 </r>
       <r>    12.3919    11.1916   108.7518 </r>
       <r>    12.6364     6.7969   111.1471 </r>
       <r>    12.8810     8.7342   112.7889 </r>
       <r>    13.1255    10.4327   115.3755 </r>
       <r>    13.3701     7.0713   117.3365 </r>
       <r>    13.6146     4.7036   118.8029 </r>
       <r>    13.8592     2.4729   119.5582 </r>
       <r>    14.1037     0.6346   119.9325 </r>
       <r>    14.3483     0.0333   119.9992 </r>
       <r>    14.5928     0.0000   120.0000 </r>
       <r>    14.8373     0.0000   120.0000 </r>
       <r>    15.0819     0.0000   120.0000 </r>
       <r>    15.3264     0.0000   120.0000 </r>
       <r>    15.5710     0.0000   120.0000 </r>
       <r>    15.8155     0.0000   120.0000 </r>
       <r>    16.0601     0.0000   120.0000 </r>
       <r>    16.3046     0.0000   120.0000 </r>
       <r>    16.5492     0.0000   120.0000 </r>
       <r>    16.7937     0.0000   120.0000 </r>
       <r>    17.0382     0.0000   120.0000 </r>
       <r>    17.2828     0.0000   120.0000 </r>
       <r>    17.5273     0.0000   120.0000 </r>
       <r>    17.7719     0.0000   120.0000 </r>
      </set>
     </set>
    </array>
   </total>
  </dos>
 </calculation>
 <structure name="finalpos" >
  <crystal>
   <varray name="basis" >
    <v>       3.90000000       0.00000000       0.00000000 </v>
    <v>       0.00000000       3.90000000       0.00000000 </v>
    <v>       0.00000000       0.00000000       7.80000000 </v>
   </varray>
   <i name="volume">    118.63800000 </i>
   <varray name="rec_basis" >
    <v>       0.25641026       0.00000000       0.00000000 </v>
    <v>       0.00000000       0.25641026       0.00000000 </v>
    <v>       0.00000000       0.00000000       0.12820513 </v>
   </varray>
  </crystal>
  <varray name="positions" >
   <v>       0.00000000       0.00000000       0.00000000 </v>
   <v>       0.00000000       0.00000000       0.50000000 </v>
   <v>       0.50000000       0.50000000       0.25000000 </v>
   <v>       0.50000000       0.50000000       0.75000000 </v>
   <v>       0.50000000       0.50000000       0.00000000 </v>
   <v>       0.50000000       0.50000000       0.50000000 </v>
   <v>       0.50000000       0.00000000       0.25000000 </v>
   <v>       0.50000000       0.00000000       0.75000000 </v>
   <v>       0.00000000       0.50000000       0.25000000 </v>
   <v>       0.00000000       0.50000000       0.75000000 </v>
  </varray>
 </structure>
</modeling>
